/*--------------------------------*- C++ -*----------------------------------*\
| =========                 |                                                 |
| \\      /  F ield         | OpenFOAM: The Open Source CFD Toolbox           |
|  \\    /   O peration     | Version:  v2006                                 |
|   \\  /    A nd           | Website:  www.openfoam.com                      |
|    \\/     M anipulation  |                                                 |
\*---------------------------------------------------------------------------*/
FoamFile
{
    version     2.0;
    format      ascii;
    class       volScalarField;
    location    "1";
    object      T;
}
// * * * * * * * * * * * * * * * * * * * * * * * * * * * * * * * * * * * * * //

dimensions      [0 0 0 1 0 0 0];


internalField   nonuniform List<scalar> 
400
(
0.000685763
0.00203954
0.00334072
0.00455628
0.00565604
0.00661347
0.0074062
0.00801632
0.00843044
0.00863969
0.00863968
0.00843041
0.00801628
0.00740615
0.0066134
0.00565596
0.0045562
0.00334065
0.00203949
0.000685738
0.00207503
0.00617124
0.0101078
0.0137847
0.0171105
0.0200052
0.0224013
0.0242451
0.0254963
0.0261285
0.0261285
0.0254962
0.024245
0.0224012
0.020005
0.0171103
0.0137845
0.0101076
0.00617109
0.00207497
0.00351819
0.0104626
0.0171348
0.0233644
0.0289965
0.0338959
0.0379493
0.0410668
0.0431817
0.04425
0.04425
0.0431816
0.0410667
0.0379491
0.0338956
0.0289962
0.0233641
0.0171346
0.0104624
0.0035181
0.0050533
0.0150265
0.0246047
0.033542
0.0416158
0.0486331
0.054434
0.0588921
0.0619146
0.0634409
0.0634408
0.0619145
0.0588919
0.0544338
0.0486329
0.0416154
0.0335417
0.0246044
0.0150263
0.0050532
0.00672192
0.0199855
0.0327161
0.0445837
0.0552923
0.0645879
0.0722625
0.0781541
0.0821451
0.0841592
0.0841592
0.082145
0.0781539
0.0722622
0.0645876
0.0552919
0.0445834
0.0327158
0.0199852
0.00672182
0.0085709
0.0254777
0.0416912
0.0567852
0.0703827
0.0821649
0.0918753
0.0993182
0.104354
0.106893
0.106893
0.104354
0.099318
0.0918751
0.0821646
0.0703824
0.0567849
0.0416909
0.0254775
0.00857079
0.0106549
0.0316638
0.0517863
0.0704843
0.0872896
0.101815
0.113757
0.122891
0.129061
0.132169
0.132169
0.129061
0.122891
0.113757
0.101815
0.0872893
0.0704841
0.051786
0.0316636
0.0106548
0.0130402
0.0387366
0.0633065
0.0860774
0.106478
0.12405
0.138449
0.149431
0.156831
0.160554
0.160554
0.156831
0.149431
0.138449
0.12405
0.106477
0.0860771
0.0633063
0.0387364
0.0130401
0.0158095
0.0469365
0.0766267
0.104042
0.128495
0.149459
0.166561
0.179553
0.188282
0.192665
0.192665
0.188282
0.179553
0.166561
0.149459
0.128495
0.104042
0.0766265
0.0469363
0.0158094
0.0190709
0.0565736
0.0922223
0.124971
0.154002
0.178733
0.198785
0.21394
0.224081
0.229161
0.229161
0.224081
0.213939
0.198785
0.178733
0.154002
0.124971
0.0922222
0.0565735
0.0190708
0.0229716
0.0680654
0.110719
0.149619
0.183812
0.212687
0.23591
0.25334
0.264946
0.270739
0.270739
0.264946
0.25334
0.23591
0.212687
0.183812
0.149619
0.110718
0.0680653
0.0229716
0.0277219
0.0819983
0.132968
0.178976
0.218942
0.252294
0.27883
0.298569
0.311623
0.318114
0.318114
0.311623
0.298569
0.27883
0.252294
0.218942
0.178976
0.132968
0.0819983
0.0277219
0.0336398
0.0992382
0.160181
0.214377
0.260686
0.298718
0.32855
0.350484
0.364867
0.371981
0.371981
0.364867
0.350484
0.32855
0.298718
0.260686
0.214377
0.160181
0.0992382
0.0336398
0.041239
0.121134
0.194141
0.257665
0.31071
0.353343
0.38617
0.409952
0.425382
0.432965
0.432965
0.425382
0.409952
0.38617
0.353344
0.31071
0.257665
0.194141
0.121134
0.041239
0.0514209
0.14992
0.237584
0.311434
0.371146
0.417777
0.452837
0.477774
0.493745
0.501535
0.501535
0.493745
0.477774
0.452837
0.417778
0.371147
0.311434
0.237584
0.14992
0.051421
0.0659457
0.189542
0.294841
0.379343
0.444666
0.493784
0.529627
0.554562
0.570292
0.577897
0.577897
0.570292
0.554562
0.529627
0.493784
0.444666
0.379343
0.294841
0.189542
0.0659457
0.0887659
0.247461
0.372896
0.466431
0.53439
0.583068
0.617327
0.640557
0.654965
0.661865
0.661865
0.654966
0.640557
0.617328
0.583068
0.53439
0.466431
0.372896
0.247461
0.088766
0.130423
0.338639
0.482851
0.579095
0.643397
0.686771
0.716058
0.735375
0.747149
0.752733
0.752733
0.747149
0.735375
0.716059
0.686771
0.643397
0.579096
0.482851
0.33864
0.130424
0.224712
0.493823
0.640772
0.723704
0.773332
0.804562
0.824761
0.837737
0.845524
0.849186
0.849186
0.845524
0.837737
0.824761
0.804562
0.773332
0.723704
0.640772
0.493823
0.224712
0.499314
0.77117
0.862712
0.901616
0.921666
0.933383
0.940687
0.945289
0.948023
0.949302
0.949302
0.948023
0.945289
0.940687
0.933383
0.921666
0.901616
0.862712
0.77117
0.499314
)
;

boundaryField
{
    movingWall
    {
        type            fixedValue;
        value           uniform 1;
    }
    fixedWalls
    {
        type            fixedValue;
        value           uniform 0;
    }
    frontAndBack
    {
        type            empty;
    }
}


// ************************************************************************* //
